Position data for CuZr system

5000 atoms
2       atom types
-22.878781  22.878781    xlo xhi
-22.878781  22.878781    ylo yhi
-22.878781  22.878781    zlo zhi

Atoms

   1  1    9.218236   4.308850 -21.893852
   2  1   21.909042   9.721098  -3.761691
   3  1   -4.430873  20.031208 -10.589864
   4  1   17.910773  10.409271 -14.751424
   5  1   22.444147  10.353590   3.347198
   6  1   19.563718 -10.588415  21.941843
   7  1  -18.425525 -10.143686  -5.996692
   8  1   13.271961  12.418651 -12.965901
   9  1   -8.854331   1.500024  -8.125170
  10  1  -11.591146  -2.935692  -3.874230
  11  1   11.298903  22.028691   6.402226
  12  1   -8.022227 -10.330588  22.071345
  13  1   19.534814  13.967696  15.071151
  14  1   -3.320632 -17.410799   3.205257
  15  1   -1.694013 -19.235741 -13.385481
  16  1  -11.740912   1.426340  -8.343554
  17  1    5.499868   6.625451 -11.735703
  18  1  -12.809629   9.188708 -21.346313
  19  1    6.941892   9.185767  -6.540482
  20  1   -8.694252   1.551363 -10.832493
  21  1  -17.997839   4.597752  19.912877
  22  1   -4.526721  17.554708  -9.152815
  23  1    8.372834  -1.646600  19.001571
  24  1   22.680579 -16.539704   4.142708
  25  1  -16.637099  -6.005511   6.173076
  26  1  -10.167486 -13.187948  -8.579217
  27  1   -2.038099  -7.629597 -15.551819
  28  1  -13.341793 -12.295911   9.733446
  29  1  -10.792107 -10.258668   4.409582
  30  1   -8.392548 -21.259989  -7.522985
  31  1  -20.962125  -7.256291   8.279254
  32  1   22.492953  13.358047   0.505578
  33  1   -3.529517  -5.898671  16.085543
  34  1  -21.143279 -15.793000  22.713697
  35  1   -3.905176 -22.454130   1.667023
  36  1   20.206658  18.415354 -20.194575
  37  1   -3.506629  21.789907 -12.062420
  38  1   -4.804949  -3.541586   8.712902
  39  1  -21.607286  19.799480  12.097632
  40  1   19.058919 -12.320382  14.231357
  41  1    4.969242   0.935156   2.574892
  42  1  -11.339244   5.280226   4.499415
  43  1   18.230298 -14.243186 -12.567083
  44  1   -4.885915   7.573623 -16.268082
  45  1   -0.334448 -20.064779  -7.076401
  46  1    0.374170 -21.475298   2.018754
  47  1   15.984215  13.287303 -20.144846
  48  1   11.707628 -21.053795 -21.963741
  49  1   21.599785   9.034961 -20.183597
  50  1    6.185689  14.148673  21.716629
  51  1   20.172552  16.125123  16.204777
  52  1  -21.392231  11.095680   5.963196
  53  1    8.784046  19.714487  10.200521
  54  1    6.294112  12.790375  -1.536324
  55  1   -7.700305   0.363639  15.472547
  56  1   -4.432004 -21.773138 -17.836803
  57  1   -0.614530   2.072401 -21.995934
  58  1    1.070485   0.299634  13.384688
  59  1  -16.610683 -11.285997  -0.141885
  60  1   17.044835  -6.234842  12.500522
  61  1   -1.471467  -3.831258  -9.207412
  62  1   -0.822330 -12.493759  17.499251
  63  1  -17.911716 -22.773951 -20.466615
  64  1  -17.412616  -7.467166   4.031255
  65  1   13.675076   5.446095   0.754993
  66  1    2.593702  10.864947  -0.696485
  67  1  -17.482863 -18.527241 -20.223660
  68  1    9.086745  13.404275  11.243455
  69  1   10.519450   7.550147 -15.401013
  70  1   -5.083628   8.114653   0.017335
  71  1   -2.918421  -9.809143  20.943011
  72  1    3.763062  18.836336   9.726797
  73  1   21.305726  -5.061185  -3.297149
  74  1   -1.680217   0.008063   5.768016
  75  1  -15.902969  -3.681582  12.699863
  76  1   -8.736771 -20.116946  17.321848
  77  1    4.495970  -1.767553   2.050326
  78  1  -14.240752  -1.803242 -18.739457
  79  1    6.030359  -8.514669  -8.265120
  80  1  -14.731257 -18.520402  22.100656
  81  1  -18.721886  -0.624021   9.843543
  82  1    3.355378  -9.934529  15.373080
  83  1  -12.131724 -11.120173  20.681746
  84  1  -10.652021  12.167473  -7.188035
  85  1    0.295058  19.607964 -16.267765
  86  1    3.674134   3.687712   6.990841
  87  1    1.232011 -12.417768 -14.512820
  88  1    2.617992 -19.261479  19.503791
  89  1   -8.764363   4.011398  10.474767
  90  1   -9.748494 -15.644229  -3.947281
  91  1   12.110336 -18.778713  -3.957368
  92  1    0.660856  16.494042  13.273189
  93  1   20.015277  10.692339 -19.794816
  94  1   -7.181981  -1.120226 -22.071816
  95  1    2.924037 -21.549113   0.022718
  96  1  -22.446669 -21.897913  20.668945
  97  1    8.469859  -2.704235  -2.917012
  98  1    5.639819  14.634700   2.471670
  99  1   12.361740  15.884529  -5.493974
 100  1  -12.413841 -17.472134  22.778832
 101  1  -12.403890 -11.289434  -3.281001
 102  1    8.765184 -13.966858   2.434670
 103  1   21.418084  18.812001 -22.604051
 104  1   -5.587794   6.855370  -2.298905
 105  1    3.401425  10.646608   9.177263
 106  1   16.661260  -6.524966   7.711763
 107  1   12.481471   9.819661  -8.199533
 108  1   12.057911 -15.547431   1.106904
 109  1   14.882297  -2.744493 -15.268390
 110  1    6.835052  -5.916719 -21.842070
 111  1  -21.619961  14.493709  14.532473
 112  1   16.718932 -14.262998  19.363615
 113  1   21.992994 -19.114839  -7.587622
 114  1    1.403806 -22.464359 -22.486309
 115  1   -2.530640  -1.924285   2.522648
 116  1  -16.326801  -6.385874 -22.776894
 117  1   15.765152  21.919363   1.557152
 118  1   15.877013  -4.963527  -1.164736
 119  1    7.563844  -7.147460  16.771771
 120  1    9.099410  19.840913   5.178315
 121  1  -17.955637   5.399414  13.134370
 122  1   20.384106   4.372492   2.088819
 123  1  -20.308112  -1.713409   0.429180
 124  1  -18.853500   4.351369   9.740955
 125  1   -9.957425 -19.537947   5.380642
 126  1  -15.684947  -8.057229  20.648545
 127  1   12.705329  -5.269482  21.197807
 128  1    2.949051   5.608662 -10.137580
 129  1   14.592309 -19.560495 -14.342383
 130  1    3.702224 -11.799028   1.573346
 131  1   17.674793 -22.035955   5.769011
 132  1   18.455784  12.662909   1.982974
 133  1  -10.438431  13.115690  18.709185
 134  1    6.211472  14.559749   0.062522
 135  1   -0.359824 -12.581376  -7.658005
 136  1   -6.155014 -21.561276   2.708193
 137  1  -12.514122   7.060320 -17.125109
 138  1   -4.677980   3.619320 -11.266728
 139  1   18.516034  -6.324267 -18.374083
 140  1  -11.399404  -2.209524 -14.534215
 141  1  -12.061929   8.264917  -9.809461
 142  1  -15.087828  16.362234 -16.941916
 143  1   -8.207908  -6.471591  -8.135619
 144  1   20.486197  -5.172050  10.188308
 145  1  -12.981921   3.273469 -19.442185
 146  1   -8.699363  19.310965  12.003050
 147  1  -12.439488  -7.511856  -5.696753
 148  1    7.283898 -17.930977  -7.991959
 149  1   -1.633898 -17.870681   1.706104
 150  1    9.256096  20.886561  21.731601
 151  1    2.129251 -17.222223 -19.149719
 152  1    6.631142  12.045480  16.631775
 153  1   -7.290042  -5.968194  13.680376
 154  1    1.638700  11.268651   3.318204
 155  1    6.173114 -10.913866  18.329048
 156  1    8.542457   2.258625  10.482186
 157  1    2.804351  -1.464312 -21.202083
 158  1    6.292936  -8.982920 -19.682241
 159  1    0.682296  10.269095  20.398995
 160  1  -11.834182  -7.080470 -10.418115
 161  1  -10.329420  -9.325287 -22.515118
 162  1  -20.186038  19.309065   4.610145
 163  1    2.220214 -20.530379 -15.791780
 164  1   -4.622343 -17.039799  18.147665
 165  1   19.606146  21.050711  -7.400720
 166  1   -8.117306  -6.118096  21.108563
 167  1  -17.520361  12.005585  -4.896809
 168  1   12.677149   5.092690  15.117469
 169  1  -20.080645   6.342113   4.690026
 170  1  -16.315448  -0.231173 -18.260454
 171  1    2.559506   1.356319 -11.717338
 172  1   12.051397 -15.782551  -9.390514
 173  1   10.427537  16.984593 -18.609950
 174  1   22.258737  -7.672976 -14.568366
 175  1    4.325306  12.643459  -8.184334
 176  1  -10.025048  -1.581329   7.557383
 177  1   17.302527 -21.415188  -8.890465
 178  1    0.779592  21.484494  -8.086179
 179  1  -21.952060   3.083356  21.906426
 180  1  -11.628734  -9.015759   8.286944
 181  1   -8.005717  11.838449 -20.534962
 182  1    1.486853  -0.706526  18.652599
 183  1    0.904661  -4.969226  -3.340346
 184  1    0.596580   7.488856 -21.296403
 185  1    0.596399  -5.737461   4.135742
 186  1    2.160371  17.842118  11.166785
 187  1   12.794619  15.576177   1.598857
 188  1    3.887769  -8.911316 -20.375823
 189  1   18.512687   5.464640   2.571137
 190  1   -1.230059 -15.757356  -4.500117
 191  1   20.360314 -10.562949   9.768366
 192  1    0.243085 -12.736841 -20.638866
 193  1   -4.513287  -8.993052  19.360674
 194  1   10.276595  18.364919  22.429091
 195  1   -2.400912  -2.096622  22.021091
 196  1   15.636148  -3.860297 -19.895672
 197  1   -7.173116  15.039851 -21.653969
 198  1   -2.024755 -10.824169  -3.790504
 199  1   15.019262  -0.142517   8.739227
 200  1   -4.668662  18.947473 -15.252513
 201  1  -22.753104 -11.242844 -18.538808
 202  1  -13.102104  -3.633183   9.362039
 203  1    7.550048 -16.033910  -9.605732
 204  1    8.378443  -3.671269   5.822114
 205  1   -5.730413  19.603802   4.634254
 206  1  -16.500586  -4.214968  -6.391801
 207  1  -19.341115  18.870849  15.994806
 208  1    8.505502   2.461630   4.526509
 209  1  -16.335621  -5.654323  -8.622053
 210  1   -7.662671  -7.465719   9.717705
 211  1   -2.361786  17.387075  -0.326706
 212  1   17.826278 -10.746504  -0.318972
 213  1   12.985999 -16.949016  -2.482731
 214  1   21.033650   4.525380 -14.419369
 215  1    4.901935   3.236605  -8.436508
 216  1    6.906927 -22.196747   2.925447
 217  1   -6.381043 -14.559183 -11.983172
 218  1  -12.456270   2.625554 -12.953598
 219  1  -21.364703  20.267956  -6.221454
 220  1    0.943923  12.136760   0.644805
 221  1  -20.062851   7.552635 -11.325124
 222  1  -17.112179 -13.036011  10.236662
 223  1   -5.130354  12.021099  15.598747
 224  1  -12.303428  -1.297719   1.309683
 225  1   -9.789566  15.348158 -18.837499
 226  1    2.379479  10.918820  -5.537759
 227  1   -6.124437  -0.785231 -13.273937
 228  1  -13.595686  17.457502  20.615299
 229  1   19.047927   7.712035  -1.769364
 230  1    2.584791  20.169439   3.809704
 231  1   -7.827816  22.305154  -9.716236
 232  1   22.467849   6.859396  -7.153206
 233  1   -4.464345  -7.056768 -20.105752
 234  1    5.108694  18.013822   6.452706
 235  1   -7.505668  -9.525940  -7.078346
 236  1  -21.404272  -9.737630  20.386782
 237  1   14.124646  -7.685731   1.437014
 238  1   -4.846970   3.544188 -15.903595
 239  1    9.668439 -10.548248   8.117230
 240  1   -9.191859 -18.191093 -10.916174
 241  1  -14.242425  -2.780227 -16.448516
 242  1    3.878496  22.268832 -18.538663
 243  1   10.059704  17.879163  14.303730
 244  1   22.052385  -0.715979   3.643428
 245  1  -21.391725  -6.279080 -22.585148
 246  1   21.650446   1.156300  18.339361
 247  1    4.456391   2.261158  19.898041
 248  1  -10.928982   3.721591  -1.782572
 249  1   -5.414597  -5.138081  21.178222
 250  1   -9.484379  19.666857   4.256514
 251  1    6.650864   9.207072   8.900754
 252  1    0.463550  20.794784  -5.556169
 253  1   21.347702  -2.070704   6.480253
 254  1   14.026445  -2.510186   4.029129
 255  1   -4.070819  -7.944418 -14.458903
 256  1   12.439495  21.985087 -11.899672
 257  1    9.072632 -17.931791   2.233338
 258  1    7.547696   1.910241  16.791086
 259  1   10.313867  -1.518682 -10.060096
 260  1  -21.565016  -7.129096  -6.002346
 261  1    9.905731 -11.322183 -20.712089
 262  1   15.812827  -1.369730   6.177690
 263  1   -1.288229  11.729890 -15.836696
 264  1   -0.455808  -6.562192   1.743421
 265  1    4.653471 -20.791490  -2.026829
 266  1   17.673843 -17.856659  13.780069
 267  1  -17.001540   0.335504 -22.250471
 268  1    8.643869  14.840057  -7.080788
 269  1  -10.792695   1.875864 -11.556219
 270  1   16.567492 -11.468421 -21.580587
 271  1   15.898182  10.278729   7.234013
 272  1    4.614661 -16.976292  20.836171
 273  1  -20.980997 -15.896900  10.132083
 274  1   -7.362777  -4.435388  18.901877
 275  1   22.132131   0.669594  15.738698
 276  1   14.592625  10.777105   9.381127
 277  1  -18.412222 -12.434685  15.266512
 278  1   13.274720   3.166222  -8.483143
 279  1  -22.481579 -11.085932   8.388989
 280  1   -0.541389  -6.236651  20.500452
 281  1  -10.813321   3.750360  21.673431
 282  1   17.794163  17.793899  -9.903817
 283  1   14.089998  11.228891   5.410360
 284  1   19.262603 -16.437297  -3.012182
 285  1  -19.464651 -21.320497   5.489924
 286  1  -20.195944 -19.473336 -16.721496
 287  1   18.427875  -6.931835 -15.771922
 288  1    2.083565 -17.727157 -10.562227
 289  1   16.444278  22.291042  -4.075335
 290  1    0.491006   2.748813  21.045282
 291  1  -19.339369 -16.729365  -1.937268
 292  1  -22.331210  -3.567007   0.533578
 293  1   -4.442724  -0.890262 -18.397537
 294  1   -9.844478 -18.583836  18.780291
 295  1   10.635699 -16.703176  11.141817
 296  1   -8.773319   3.816716  -7.282210
 297  1   20.966299 -10.459773  -3.248705
 298  1   15.204309  -8.318766   4.294238
 299  1   18.374274  12.927340 -19.593345
 300  1  -16.632032  19.740451  -4.162544
 301  1    0.234129   1.302628   9.898727
 302  1   15.200645  11.240742   0.401588
 303  1    2.767803 -12.935911   9.432647
 304  1   13.160598 -22.588196  18.031416
 305  1    8.996641 -21.326654 -10.245370
 306  1  -19.711305  10.981060  21.931666
 307  1   12.809003  -3.586503  -4.643596
 308  1  -19.005360  11.043617  19.805721
 309  1   -8.709088  17.357945 -10.934086
 310  1   -0.532613  -4.182627   5.662488
 311  1   13.204700 -15.948058   6.396888
 312  1    9.623387   3.286315 -17.277318
 313  1   17.620966 -18.173963  -8.038549
 314  1   18.260423 -21.388184 -17.793334
 315  1   20.679070   6.397161   3.783786
 316  1  -22.074243  -1.442736 -17.071960
 317  1   -8.872288  -8.713332  -8.982921
 318  1  -15.126411   4.633757   7.661961
 319  1   -6.152255 -15.797387  21.881367
 320  1  -14.433534  22.324831 -11.787087
 321  1    2.328049  18.816479 -16.232529
 322  1  -10.120806   5.221694   2.371796
 323  1   10.171384 -12.074858  12.213338
 324  1    4.625653   9.186989  21.820574
 325  1  -12.844865   2.398168   0.481696
 326  1  -16.129721  -1.620456  -7.541259
 327  1    4.988556  -9.438324 -16.106872
 328  1   17.068582  -9.386035 -11.842905
 329  1   22.326768  -6.144150   7.069863
 330  1    0.663389  22.110563 -10.551687
 331  1    0.266878 -17.794328  18.252921
 332  1    2.807382 -20.961873   2.601353
 333  1  -17.159086  10.847714   0.294386
 334  1   -9.776041  -6.589468 -16.443676
 335  1  -10.061551 -16.963355   0.738347
 336  1  -21.278177  -6.185900  -8.748569
 337  1   22.105941   7.711900 -11.887414
 338  1  -13.508386  -7.321381  16.558453
 339  1    2.798607  15.791214   3.680247
 340  1   -1.479745 -16.689425  20.012842
 341  1   16.734899  -2.152666   8.207379
 342  1    2.451444  -2.335904   8.974619
 343  1    7.876946 -17.663153  -4.091031
 344  1   -8.081708  12.170458  -5.355742
 345  1    3.335837   7.041322  13.707968
 346  1  -13.730027  -4.744419 -13.473324
 347  1  -11.352723  10.560078  -2.346580
 348  1  -12.791988  -1.780897  -1.651577
 349  1   14.218007  10.605537 -17.843995
 350  1  -22.061072   8.472490 -18.080065
 351  1    7.633910   1.939507  -4.987275
 352  1    1.954742  -7.163428   5.475359
 353  1    7.910735  -3.389921 -12.031933
 354  1   16.589204 -17.520081   7.924086
 355  1   -8.433394  -4.269021  15.181655
 356  1  -20.195225   5.598982 -15.616005
 357  1    3.979094  -6.637279   0.395029
 358  1  -16.744391  21.738975 -15.474697
 359  1   -2.965599 -13.200749   4.173829
 360  1  -12.765889  20.111270  20.525195
 361  1    4.967523  -4.110209   0.490018
 362  1   17.559178  -9.849355  10.743225
 363  1   -4.824987   4.733541 -20.603078
 364  1    4.893250  14.601499   8.367911
 365  1  -21.647688  -8.002407   0.202156
 366  1   18.683531 -14.968450   4.434460
 367  1    4.839468  -1.515561   8.922375
 368  1   -6.189029   9.116516  19.948068
 369  1    8.360214   8.412557 -19.924960
 370  1   16.084948  12.080762 -13.304379
 371  1   -3.688782  -9.270872 -19.540599
 372  1   13.818284   2.949828  15.659178
 373  1   12.692573  14.476837  18.532958
 374  1   10.395558  -1.569026  17.216048
 375  1    0.343231   3.506600 -16.304494
 376  1  -20.715525  -2.046685 -19.397052
 377  1   -2.702479  -5.007810  14.128814
 378  1  -11.959794  -4.019155 -20.963340
 379  1    3.171099  12.245681  13.029203
 380  1  -21.174670 -22.251192  -1.743626
 381  1   20.398355  -0.449739  -4.321809
 382  1  -10.265144  16.583287 -22.359997
 383  1   -5.487196   1.766536 -14.228667
 384  1   15.188523 -17.372306  -7.711199
 385  1  -15.039835 -18.069706   6.244182
 386  1  -18.645189 -21.430495  -7.370369
 387  1   -5.286045  -2.502135 -11.442639
 388  1   -2.807103  15.795556   7.574662
 389  1  -22.297109  -9.184613 -10.172319
 390  1   12.618844   8.488865 -14.478172
 391  1    3.080045  21.403256 -16.833221
 392  1   -0.060789  11.945787  21.180031
 393  1    8.367270  -9.257619  -9.826966
 394  1  -11.543063 -16.667306 -20.606823
 395  1   -4.205794  12.049144  -3.645397
 396  1  -11.706535  -0.594122  21.144252
 397  1   10.345982  10.906562  -6.527093
 398  1  -20.929784  14.194358  17.035750
 399  1  -11.014788  20.038309  16.995945
 400  1  -19.924094  -7.857345   3.341137
 401  1    8.494691 -17.176809  -2.234131
 402  1   -9.399477   1.583388 -16.555130
 403  1  -20.716357   8.695307  21.993544
 404  1  -13.095139  21.097392   2.470132
 405  1   15.815179  -9.290910   7.724835
 406  1    4.323497   5.045648   1.181810
 407  1   -6.237926  12.643413  -3.710261
 408  1   11.274342  14.249723   5.789185
 409  1  -19.926342   6.972840 -21.451787
 410  1   19.868271   3.219914 -10.864699
 411  1   19.803226  -0.642069  15.397461
 412  1  -13.112960 -15.681908  -1.457438
 413  1   -7.190892  -5.412735  -2.015521
 414  1  -13.773948 -20.150151 -18.879213
 415  1   10.945273   5.125620  -0.022018
 416  1   20.924820  13.847693 -14.908246
 417  1  -12.345992 -10.565799  13.367862
 418  1    0.200069  12.433533   9.882760
 419  1  -12.062789 -10.224064 -16.855340
 420  1   17.323515   3.424954 -10.512561
 421  1   14.434627   7.179328 -21.292843
 422  1  -15.714574 -21.594708  14.830693
 423  1  -18.241029  12.667975 -17.919896
 424  1   10.586531  15.244575  15.830520
 425  1   17.772858 -13.523848  12.289420
 426  1   -4.295446  -4.100846 -10.170962
 427  1  -16.947079 -14.558595  21.913482
 428  1    5.697853  14.851049  10.570345
 429  1  -19.395001   3.185718  21.012986
 430  1    1.548234  -8.646613 -19.012591
 431  1    9.806897  -6.544778  -7.252764
 432  1   10.025010  -3.062254  -0.910346
 433  1   -8.503640  17.974333   8.993843
 434  1  -19.365618  -5.089681  17.872332
 435  1  -19.482404 -11.229727 -11.180469
 436  1   -9.401649  11.972655  -0.994072
 437  1   11.476985  -9.057283 -20.477616
 438  1   20.104024  -4.903412 -21.054963
 439  1  -15.410655 -20.837514  21.089158
 440  1   -6.578756  16.969440 -15.263641
 441  1  -13.225952 -13.955279  -3.595731
 442  1   -9.706880 -14.894132  -6.402069
 443  1    1.403172   6.283807  15.628827
 444  1  -17.734991  13.490444  -2.530542
 445  1   18.810002 -19.802084 -15.456333
 446  1  -16.964404 -15.456015   2.985923
 447  1   16.661441  18.727551 -16.842449
 448  1    6.946189 -19.169964  -5.803729
 449  1   15.793965  -2.816096 -17.365929
 450  1   20.642069  -4.454748 -18.641170
 451  1    4.501805  17.022860  -7.915516
 452  1   -5.668625  21.963872   4.712959
 453  1  -14.668609  -8.317137  -5.165628
 454  1   13.090487 -21.535204  -6.328475
 455  1   22.086084  15.478338  -7.448079
 456  1  -14.093654 -13.612911  19.582723
 457  1  -21.815597  -1.518953   5.253311
 458  1   -9.603432   7.671009  13.968600
 459  1    5.817855   3.764065 -10.450682
 460  1    3.893559   1.306563   0.686646
 461  1   -8.679687 -20.090634  -5.560195
 462  1  -10.844080  -6.881129   5.515571
 463  1   15.223714 -14.044161  12.891379
 464  1   -4.542372   4.335266  20.340011
 465  1   19.252380  -8.452791   3.203583
 466  1  -21.460592  -1.757240 -12.906375
 467  1   13.750977  12.509117  13.420151
 468  1   11.386836  10.311885  14.758139
 469  1    6.996714  16.563022   6.362466
 470  1   -7.686644 -11.209689  -8.952886
 471  1   -0.022884   6.082295 -10.269208
 472  1    4.507323  18.713348  -5.916268
 473  1   14.617910  21.702743   9.765742
 474  1    0.132626  -5.877276 -14.438367
 475  1   18.836102 -11.013559  -4.780787
 476  1   19.381022 -17.980823  11.729346
 477  1   -8.919421  11.520552 -17.698933
 478  1  -16.564997  10.656062 -12.836264
 479  1  -17.211556  11.231288 -15.329726
 480  1   13.588998   3.926542  -1.620954
 481  1    9.180105  14.964583   6.816604
 482  1  -14.844656 -19.714265  12.928425
 483  1   -7.340568 -13.879333 -17.785871
 484  1   18.761965  18.431457   0.501191
 485  1  -13.841255  17.301540   0.549454
 486  1   -9.614876  -6.319020  -9.641738
 487  1   14.425671   4.723409 -13.856175
 488  1    8.112428 -17.584041  11.246033
 489  1   -4.931193 -14.057596  20.285596
 490  1   21.470555  -5.636502  22.337631
 491  1   -0.850510  13.062270  16.845229
 492  1  -16.549256 -18.919980 -11.884881
 493  1   14.380890 -19.366483  -1.777641
 494  1  -22.177730 -14.637119  17.038916
 495  1   18.851752  -5.564491  16.347351
 496  1    2.021687  -1.026820  -4.928065
 497  1    9.692775   0.765849  -9.054841
 498  1  -19.202793  -7.111998  -1.939891
 499  1   18.513139  -2.198577   0.313339
 500  1   17.217217  10.031260  -6.554956
 501  1   -7.034386  16.431666   2.590045
 502  1  -17.101866 -18.671552  10.909184
 503  1   20.820377  11.841525 -11.655234
 504  1  -10.067115   2.975611  -9.453117
 505  1   -8.453070   4.989604  -5.000393
 506  1   18.644043 -18.564947 -12.420890
 507  1   -2.191936   9.330060  17.793039
 508  1    6.857081 -10.792596  20.802110
 509  1   -2.618346 -19.109605 -21.782041
 510  1    8.714342  21.271448  -6.223354
 511  1   -4.576296   0.305922  -6.775195
 512  1   -7.300898  -9.013769  -4.749079
 513  1  -13.169501   5.579260  -2.989701
 514  1   20.824177 -12.568303  21.310302
 515  1    8.614649  -2.990469  -5.384827
 516  1   11.992776  -1.737473   3.745202
 517  1   14.487097  18.604925  18.692902
 518  1   10.901306 -19.016715   8.293322
 519  1  -10.566259  -0.201184  10.986351
 520  1   13.896356  14.324402  12.576287
 521  1   13.564482  -8.637612   8.855340
 522  1  -16.514608  -1.146777   3.430879
 523  1   15.868011  19.541381  22.177099
 524  1   15.582682  20.086392 -18.900287
 525  1    6.565781 -18.111528   2.964256
 526  1  -17.664789  -4.637036  21.988297
 527  1   12.127027  -1.485119  -0.332406
 528  1   22.771497  14.654105  18.919383
 529  1   16.141308 -20.432952  -3.623911
 530  1   22.104810 -20.686296  -3.475095
 531  1    6.720884   4.973049  11.507796
 532  1    0.939219 -16.914956   5.146290
 533  1    5.641131  18.037478  16.555287
 534  1   -0.131986 -10.090492  -7.857482
 535  1   -6.215355   8.901569 -11.552465
 536  1   -6.659270 -12.492402 -16.313541
 537  1   13.427924   6.899291  15.821021
 538  1    5.198436  19.099908  14.302871
 539  1  -20.955046   8.834670 -13.142536
 540  1    1.996763 -10.206514 -21.864623
 541  1   -5.874842  -2.147826  -3.734867
 542  1  -11.184005  16.486217  20.299483
 543  1   -0.489778  17.540595  -0.833134
 544  1  -11.925507 -21.266648 -11.883524
 545  1    4.064901   6.679188  20.320109
 546  1   -0.205580 -16.574443 -20.584365
 547  1  -21.345664   1.309730  14.143334
 548  1   -3.459587   1.122420  -2.882228
 549  1   -8.978405 -17.733400 -21.872986
 550  1  -14.805348  21.904165   9.478559
 551  1   11.812523   1.448097  -9.756765
 552  1  -21.317665   0.410862   1.456147
 553  1    3.941505 -13.222597 -18.910618
 554  1    2.628305  -2.732551  17.667156
 555  1   -6.391808 -12.887240 -20.209244
 556  1   -5.879862 -17.154916 -18.591156
 557  1    1.336318  -9.083337  -9.505180
 558  1  -12.121094 -11.674411  -8.064332
 559  1  -20.627931   2.882386 -12.520312
 560  1   10.760361  18.065070   5.425920
 561  1  -21.815213  -3.807013  18.272552
 562  1  -16.616156 -11.583131  -2.564241
 563  1   19.207645  10.071834  21.025380
 564  1    0.370144 -12.681612   8.539977
 565  1   10.025191 -16.414047  16.756799
 566  1   -6.694959 -20.589530   8.092533
 567  1    8.823354   0.798824  21.407778
 568  1  -11.036229 -20.649508   9.623801
 569  1   22.285063   8.037757   2.444531
 570  1    4.501715  -9.763956  19.926990
 571  1  -16.564319   4.477026  14.928803
 572  1   -9.542911  -8.456183 -19.950164
 573  1   15.938982  -0.627730 -16.273103
 574  1  -19.254815 -20.879165   7.624237
 575  1   -0.912208 -10.179736   8.049290
 576  1    6.900730  15.355848  -2.499693
 577  1    3.280382 -13.825551  13.692001
 578  1   12.620336 -20.349714   6.501693
 579  1   -4.716066  -5.773105  -2.662939
 580  1   -3.423311  21.666331  -3.065873
 581  1  -10.132295  22.192389  -8.413665
 582  1  -14.504369 -15.762739  -7.190387
 583  1  -15.592355 -14.715779 -16.876780
 584  1   13.800688   3.947213   8.719144
 585  1   20.384016 -11.632119  -9.947919
 586  1   -6.527145 -19.625766   9.855710
 587  1   -1.138372  -2.258511   4.242221
 588  1    4.956802  14.891351  -3.374316
 589  1  -13.705873  -2.519504 -14.243142
 590  1    3.544542   7.767672   4.804646
 591  1   13.762285  11.561760  15.582328
 592  1   -9.000478   2.807887  19.111803
 593  1   -2.122549  12.965336  10.905339
 594  1   -8.039461  -9.317417  -1.324951
 595  1   22.405744 -20.305277 -19.873232
 596  1   -6.515656   4.939713  -7.057493
 597  1  -15.343574  19.463264  19.467922
 598  1   -5.000581  15.385701 -10.298157
 599  1  -12.736080 -14.954970   5.270409
 600  1    1.416290 -12.732951  18.764777
 601  1   12.875812  -4.926662 -12.041160
 602  1   20.494972  22.373954  -0.013695
 603  1   -9.821003   1.550821  21.188263
 604  1   19.636407 -18.053558  19.820828
 605  1   10.008319  18.129256  12.163130
 606  1   -6.377062 -21.401907  -9.843929
 607  1  -20.660033 -22.080708 -14.229527
 608  1    8.163994   5.302842  -1.457890
 609  1   -9.158386  12.103016 -10.841178
 610  1  -18.150771  10.280539  17.673353
 611  1  -13.672672 -12.446672 -20.606606
 612  1  -19.608518   8.662468 -18.609620
 613  1    9.906907 -22.348390  12.954705
 614  1   19.317922 -13.248967   2.937569
 615  1  -17.735850  -0.212854   5.141993
 616  1  -14.499031  19.017539  16.256569
 617  1   18.955562  -1.750817   6.760108
 618  1   15.320241 -18.404113   2.032459
 619  1  -16.705400   3.343309  -9.876496
 620  1    4.424366 -16.293999  16.285065
 621  1   11.798817  -0.002521  19.046442
 622  1   -8.566605  -1.530307   9.644473
 623  1  -21.829009  14.123749 -17.258772
 624  1  -18.470075  19.375602  -2.307635
 625  1    8.447423   5.462740   7.297068
 626  1  -16.342994   6.417380 -13.195006
 627  1   17.113725  17.190538   6.824972
 628  1   -9.112656 -10.919429  18.130974
 629  1  -21.616148 -20.258335   4.672611
 630  1   22.463190 -17.460555 -13.295197
 631  1  -16.224801   1.716102 -16.769760
 632  1   18.127845 -10.448058   2.450366
 633  1   12.987899  -4.813037   5.388964
 634  1  -21.076176  -9.384090  16.293886
 635  1    9.372435   3.694090   6.213922
 636  1   -0.250587 -19.392957 -11.980096
 637  1   19.741890  -3.226901 -13.864136
 638  1  -15.882071  -3.705239 -13.341560
 639  1   20.271657   9.217973 -12.959342
 640  1  -17.006832  20.098152 -13.457040
 641  1   12.129876  -6.221408  -7.698488
 642  1  -14.773550  19.430470   6.497532
 643  1  -21.837816  12.620706  -7.236615
 644  1   10.270986 -11.261842  -9.648884
 645  1   15.205304  15.571970   3.236558
 646  1   -3.227226  20.203771 -20.939638
 647  1  -12.440890   4.009544  -9.755634
 648  1  -17.128463 -20.334642  13.006225
 649  1   14.885327   8.243521 -18.238213
 650  1   20.042101   4.979879 -17.626877
 651  1   17.091108   8.409390 -20.538291
 652  1  -17.711017   1.597863  10.958307
 653  1    4.166177   4.549262  18.689419
 654  1   -5.243391   8.839691 -18.911979
 655  1   10.397910 -19.208787 -21.320716
 656  1  -10.684860 -11.242347   9.263974
 657  1   21.704499   7.705793 -14.408332
 658  1    4.867513 -17.825584 -19.869157
 659  1  -11.575495  -8.077946  15.388233
 660  1   15.821874   2.742526  18.709502
 661  1   18.075059  13.131114  -3.195330
 662  1   -6.020446  16.392766   0.669955
 663  1    1.300177 -15.387216  13.637359
 664  1   21.908002  18.919610 -11.603125
 665  1   13.879031  -2.971426  12.705517
 666  1    9.744657  -4.646083   0.811986
 667  1   -3.872880   2.297525  10.141537
 668  1   19.483384  11.019644   3.829516
 669  1    0.374034  -5.978326  17.362241
 670  1  -18.130882  19.981904  13.419925
 671  1  -17.290578 -14.795298  -7.474088
 672  1   -8.769745  -7.089924  -0.829877
 673  1  -12.938497  22.051127  22.556422
 674  1   -1.544654  -4.187738 -13.544204
 675  1   15.334263 -18.698185   9.865933
 676  1   16.193688  11.392182 -16.157080
 677  1  -20.233840  17.631423  -9.612110
 678  1    5.172744  16.039271   4.304325
 679  1   11.657645 -15.424442   8.795542
 680  1  -10.828474  22.383226 -18.945203
 681  1  -12.494310 -13.155471 -16.025995
 682  1  -15.782062 -16.921696  16.132902
 683  1  -19.078004  12.100619   4.588252
 684  1  -16.081277   2.671194   6.423124
 685  1   -2.911229  12.067508  17.654852
 686  1  -14.705248  -8.605497 -14.518474
 687  1  -14.377038  -6.647366   6.129291
 688  1  -17.197398   8.190916  13.317789
 689  1   16.038313   8.269576 -11.345117
 690  1   11.886659 -15.188824  16.390141
 691  1   21.355075  -5.182906  -6.308754
 692  1   21.280667  11.271410  -7.895251
 693  1    8.873607  -2.266291  15.004251
 694  1   -4.135909 -15.076963  22.410229
 695  1    9.986155  19.904465  15.972099
 696  1   13.394180 -17.081368   4.257238
 697  1   17.648513 -18.079341  10.184825
 698  1    0.031531   3.500267   2.350627
 699  1  -18.750437 -14.803350   2.019116
 700  1   19.191587  -1.050115 -20.230445
 701  1   14.827927 -10.177429  16.905887
 702  1  -16.009583   5.461112 -10.897945
 703  1  -10.588740 -21.056722  12.003684
 704  1   20.829107 -13.125934 -12.225123
 705  1  -18.965158  20.583003  19.682552
 706  1  -20.106804 -16.622118 -16.927170
 707  1    9.160338   3.183365  19.547486
 708  1  -14.859854 -16.311414  18.162230
 709  1  -12.202423 -15.429011  -5.701683
 710  1   -1.246433 -17.600098  -2.544655